                         Program Version 4.2.1 -  RELEASE  -
|  1> ! UKS B3LYP def2-TZVP Grid4 TightSCF NOFINALGRID KeepDens
|  2> %output PrintLevel Mini Print[ P_Mulliken ] 1 Print[P_AtCharges_M] 1 end
|  3> %pal nprocs 4 end
|  4> %coords
|  5>     CTyp xyz
|  6>     Charge 0
|  7>     Mult 4
|  8>     Units Angs
|  9>     coords
| 10>         P 0.0 0.0 0.0
| 11>     end
| 12> end
| 13>
| 14>                          ****END OF INPUT****

CARTESIAN COORDINATES (ANGSTROEM)
---------------------------------
  P      0.000000    0.000000    0.000000

ORBITAL ENERGIES
----------------
                 SPIN UP ORBITALS
  NO   OCC          E(Eh)            E(eV)
   0   1.0000     -77.098536     -2097.9578
   1   1.0000      -6.579481      -179.0368
   2   1.0000      -4.742759      -129.0570
   3   1.0000      -4.742759      -129.0570
   4   1.0000      -4.742759      -129.0570
   5   1.0000      -0.595417       -16.2021
   6   1.0000      -0.257026        -6.9940
   7   1.0000      -0.257026        -6.9940
   8   1.0000      -0.257026        -6.9940
   9   0.0000       0.225912         6.1474
  10   0.0000       0.225912         6.1474
  11   0.0000       0.225912         6.1474
  12   0.0000       0.249079         6.7778
  13   0.0000       0.249079         6.7778

                 SPIN DOWN ORBITALS
  NO   OCC          E(Eh)            E(eV)
   0   1.0000     -77.084277     -2097.5698
   1   1.0000      -6.566132      -178.6735
   2   1.0000      -4.722128      -128.4956
   3   1.0000      -4.722128      -128.4956
   4   1.0000      -4.722128      -128.4956
   5   1.0000      -0.478966       -13.0333
   6   0.0000      -0.113470        -3.0877
   7   0.0000      -0.113470        -3.0877
   8   0.0000      -0.113470        -3.0877
   9   0.0000       0.262352         7.1390
  10   0.0000       0.262352         7.1390

MULLIKEN ATOMIC CHARGES AND SPIN POPULATIONS
--------------------------------------------
   0 P :    0.000000    3.000000
Sum of atomic charges         :    0.0000000

FINAL SINGLE POINT ENERGY      -341.223879540390

DIPOLE MOMENT
-------------
                                X             Y             Z
Electronic contribution:      0.00000      -0.00000      -0.00000
Nuclear contribution   :      0.00000       0.00000       0.00000
                        -----------------------------------------
Total Dipole Moment    :      0.00000      -0.00000      -0.00000
                        -----------------------------------------
Magnitude (a.u.)       :      0.00000
Magnitude (Debye)      :      0.00000

Rotational constants in cm-1:     0.000000     0.000000     0.000000
Rotational constants in MHz :     0.000000     0.000000     0.000000

                             ****ORCA TERMINATED NORMALLY****
TOTAL RUN TIME: 0 days 0 hours 0 minutes 1 seconds 745 msec
