                         Program Version 4.2.1 -  RELEASE  -
|  1> ! UKS B3LYP def2-TZVP Grid4 TightSCF NOFINALGRID KeepDens
|  2> %output PrintLevel Mini Print[ P_Mulliken ] 1 Print[P_AtCharges_M] 1 end
|  3> %pal nprocs 4 end
|  4> %coords
|  5>     CTyp xyz
|  6>     Charge 0
|  7>     Mult 3
|  8>     Units Angs
|  9>     coords
| 10>         S 0.0 0.0 0.0
| 11>     end
| 12> end
| 13>
| 14>                          ****END OF INPUT****

CARTESIAN COORDINATES (ANGSTROEM)
---------------------------------
  S      0.000000    0.000000    0.000000

ORBITAL ENERGIES
----------------
                 SPIN UP ORBITALS
  NO   OCC          E(Eh)            E(eV)
   0   1.0000     -88.912661     -2419.4365
   1   1.0000      -7.984330      -217.2647
   2   1.0000      -5.953079      -161.9915
   3   1.0000      -5.953079      -161.9915
   4   1.0000      -5.933922      -161.4702
   5   1.0000      -0.721707       -19.6386
   6   1.0000      -0.331382        -9.0174
   7   1.0000      -0.331382        -9.0174
   8   1.0000      -0.283871        -7.7245
   9   0.0000       0.258077         7.0226
  10   0.0000       0.258077         7.0226
  11   0.0000       0.278181         7.5697
  12   0.0000       0.288936         7.8623
  13   0.0000       0.288936         7.8623

                 SPIN DOWN ORBITALS
  NO   OCC          E(Eh)            E(eV)
   0   1.0000     -88.900441     -2419.1040
   1   1.0000      -7.973217      -216.9623
   2   1.0000      -5.930575      -161.3791
   3   1.0000      -5.930575      -161.3791
   4   1.0000      -5.927072      -161.2838
   5   1.0000      -0.628402       -17.0997
   6   1.0000      -0.258958        -7.0466
   7   0.0000      -0.173522        -4.7218
   8   0.0000      -0.173521        -4.7218
   9   0.0000       0.285445         7.7674
  10   0.0000       0.293510         7.9868
  11   0.0000       0.293517         7.9870

MULLIKEN ATOMIC CHARGES AND SPIN POPULATIONS
--------------------------------------------
   0 S :    0.000000    2.000000
Sum of atomic charges         :    0.0000000

FINAL SINGLE POINT ENERGY      -398.071427784029

DIPOLE MOMENT
-------------
                                X             Y             Z
Electronic contribution:     -0.00000      -0.00000       0.00000
Nuclear contribution   :      0.00000       0.00000       0.00000
                        -----------------------------------------
Total Dipole Moment    :     -0.00000      -0.00000       0.00000
                        -----------------------------------------
Magnitude (a.u.)       :      0.00000
Magnitude (Debye)      :      0.00000

Rotational constants in cm-1:     0.000000     0.000000     0.000000
Rotational constants in MHz :     0.000000     0.000000     0.000000

                             ****ORCA TERMINATED NORMALLY****
TOTAL RUN TIME: 0 days 0 hours 0 minutes 2 seconds 866 msec
