                         Program Version 4.2.1 -  RELEASE  -
|  1> ! UKS B3LYP def2-TZVP Grid4 TightSCF NOFINALGRID KeepDens
|  2> %output PrintLevel Mini Print[ P_Mulliken ] 1 Print[P_AtCharges_M] 1 end
|  3> %pal nprocs 4 end
|  4> %coords
|  5>     CTyp xyz
|  6>     Charge 0
|  7>     Mult 2
|  8>     Units Angs
|  9>     coords
| 10>         Br 0.0 0.0 0.0
| 11>     end
| 12> end
| 13>
| 14>                          ****END OF INPUT****

CARTESIAN COORDINATES (ANGSTROEM)
---------------------------------
  Br     0.000000    0.000000    0.000000

ORBITAL ENERGIES
----------------
                 SPIN UP ORBITALS
  NO   OCC          E(Eh)            E(eV)
   0   1.0000    -482.891449    -13140.1444
   1   1.0000     -62.538650     -1701.7632
   2   1.0000     -56.358309     -1533.5876
   3   1.0000     -56.350583     -1533.3773
   4   1.0000     -56.350583     -1533.3773
   5   1.0000      -8.729979      -237.5548
   6   1.0000      -6.566694      -178.6888
   7   1.0000      -6.545309      -178.1069
   8   1.0000      -6.545309      -178.1069
   9   1.0000      -2.678351       -72.8816
  10   1.0000      -2.673100       -72.7387
  11   1.0000      -2.673100       -72.7387
  12   1.0000      -2.657336       -72.3098
  13   1.0000      -2.657336       -72.3098
  14   1.0000      -0.794368       -21.6158
  15   1.0000      -0.370476       -10.0812
  16   1.0000      -0.322586        -8.7780
  17   1.0000      -0.322586        -8.7780
  18   0.0000       0.222090         6.0434
  19   0.0000       0.240149         6.5348
  20   0.0000       0.240149         6.5348
  21   0.0000       0.261511         7.1161
  22   0.0000       0.269426         7.3315

                 SPIN DOWN ORBITALS
  NO   OCC          E(Eh)            E(eV)
   0   1.0000    -482.888880    -13140.0745
   1   1.0000     -62.537202     -1701.7238
   2   1.0000     -56.352533     -1533.4304
   3   1.0000     -56.349543     -1533.3490
   4   1.0000     -56.349543     -1533.3490
   5   1.0000      -8.726010      -237.4468
   6   1.0000      -6.555595      -178.3868
   7   1.0000      -6.543609      -178.0607
   8   1.0000      -6.543609      -178.0607
   9   1.0000      -2.670401       -72.6653
  10   1.0000      -2.667024       -72.5734
  11   1.0000      -2.667024       -72.5734
  12   1.0000      -2.656477       -72.2864
  13   1.0000      -2.656477       -72.2864
  14   1.0000      -0.750757       -20.4291
  15   1.0000      -0.309418        -8.4197
  16   1.0000      -0.309418        -8.4197
  17   0.0000      -0.232161        -6.3174
  18   0.0000       0.243281         6.6200
  19   0.0000       0.243281         6.6200
  20   0.0000       0.245256         6.6737
  21   0.0000       0.297941         8.1074

MULLIKEN ATOMIC CHARGES AND SPIN POPULATIONS
--------------------------------------------
   0 Br:    0.000000    1.000000
Sum of atomic charges         :    0.0000000

FINAL SINGLE POINT ENERGY     -2574.001420131178

DIPOLE MOMENT
-------------
                                X             Y             Z
Electronic contribution:      0.00000      -0.00000       0.00000
Nuclear contribution   :      0.00000       0.00000       0.00000
                        -----------------------------------------
Total Dipole Moment    :      0.00000      -0.00000       0.00000
                        -----------------------------------------
Magnitude (a.u.)       :      0.00000
Magnitude (Debye)      :      0.00000

Rotational constants in cm-1:     0.000000     0.000000     0.000000
Rotational constants in MHz :     0.000000     0.000000     0.000000

                             ****ORCA TERMINATED NORMALLY****
TOTAL RUN TIME: 0 days 0 hours 0 minutes 1 seconds 919 msec
