                         Program Version 4.2.1 -  RELEASE  -
|  1> ! UKS B3LYP def2-TZVP Grid4 TightSCF NOFINALGRID KeepDens
|  2> %output PrintLevel Mini Print[ P_Mulliken ] 1 Print[P_AtCharges_M] 1 end
|  3> %pal nprocs 4 end
|  4> %coords
|  5>     CTyp xyz
|  6>     Charge 0
|  7>     Mult 2
|  8>     Units Angs
|  9>     coords
| 10>         Cl 0.0 0.0 0.0
| 11>     end
| 12> end
| 13>
| 14>                          ****END OF INPUT****

CARTESIAN COORDINATES (ANGSTROEM)
---------------------------------
  Cl     0.000000    0.000000    0.000000

ORBITAL ENERGIES
----------------
                 SPIN UP ORBITALS
  NO   OCC          E(Eh)            E(eV)
   0   1.0000    -101.571638     -2763.9048
   1   1.0000      -9.500203      -258.5137
   2   1.0000      -7.273294      -197.9164
   3   1.0000      -7.250385      -197.2930
   4   1.0000      -7.250385      -197.2930
   5   1.0000      -0.844218       -22.9723
   6   1.0000      -0.407055       -11.0765
   7   1.0000      -0.352033        -9.5793
   8   1.0000      -0.352033        -9.5793
   9   0.0000       0.310595         8.4517
  10   0.0000       0.333853         9.0846
  11   0.0000       0.333853         9.0846
  12   0.0000       0.362900         9.8750
  13   0.0000       0.373657        10.1677

                 SPIN DOWN ORBITALS
  NO   OCC          E(Eh)            E(eV)
   0   1.0000    -101.564179     -2763.7018
   1   1.0000      -9.493573      -258.3333
   2   1.0000      -7.250492      -197.2959
   3   1.0000      -7.246272      -197.1811
   4   1.0000      -7.246272      -197.1811
   5   1.0000      -0.790533       -21.5115
   6   1.0000      -0.337021        -9.1708
   7   1.0000      -0.337021        -9.1708
   8   0.0000      -0.242190        -6.5903
   9   0.0000       0.338263         9.2046
  10   0.0000       0.338263         9.2046
  11   0.0000       0.344380         9.3710
  12   0.0000       0.415623        11.3097

MULLIKEN ATOMIC CHARGES AND SPIN POPULATIONS
--------------------------------------------
   0 Cl:   -0.000000    1.000000
Sum of atomic charges         :   -0.0000000

FINAL SINGLE POINT ENERGY      -460.101701147512

DIPOLE MOMENT
-------------
                                X             Y             Z
Electronic contribution:      0.00000       0.00000       0.00000
Nuclear contribution   :      0.00000       0.00000       0.00000
                        -----------------------------------------
Total Dipole Moment    :      0.00000       0.00000       0.00000
                        -----------------------------------------
Magnitude (a.u.)       :      0.00000
Magnitude (Debye)      :      0.00000

Rotational constants in cm-1:     0.000000     0.000000     0.000000
Rotational constants in MHz :     0.000000     0.000000     0.000000

                             ****ORCA TERMINATED NORMALLY****
TOTAL RUN TIME: 0 days 0 hours 0 minutes 1 seconds 790 msec
