                         Program Version 4.2.1 -  RELEASE  -
|  1> ! UKS B3LYP def2-TZVP Grid4 TightSCF NOFINALGRID KeepDens
|  2> %output PrintLevel Mini Print[ P_Mulliken ] 1 Print[P_AtCharges_M] 1 end
|  3> %pal nprocs 4 end
|  4> %coords
|  5>     CTyp xyz
|  6>     Charge 0
|  7>     Mult 3
|  8>     Units Angs
|  9>     coords
| 10>         C 0.0 0.0 0.0
| 11>     end
| 12> end
| 13>
| 14>                          ****END OF INPUT****

CARTESIAN COORDINATES (ANGSTROEM)
---------------------------------
  C      0.000000    0.000000    0.000000

ORBITAL ENERGIES
----------------
                 SPIN UP ORBITALS
  NO   OCC          E(Eh)            E(eV)
   0   1.0000     -10.302679      -280.3501
   1   1.0000      -0.586007       -15.9461
   2   1.0000      -0.265466        -7.2237
   3   1.0000      -0.265466        -7.2237
   4   0.0000      -0.153079        -4.1655
   5   0.0000       0.139668         3.8006
   6   0.0000       0.218179         5.9369
   7   0.0000       0.218179         5.9369
   8   0.0000       0.233283         6.3480

                 SPIN DOWN ORBITALS
  NO   OCC          E(Eh)            E(eV)
   0   1.0000     -10.273529      -279.5569
   1   1.0000      -0.475982       -12.9521
   2   0.0000      -0.123977        -3.3736
   3   0.0000      -0.077962        -2.1215
   4   0.0000      -0.077962        -2.1215
   5   0.0000       0.160768         4.3747
   6   0.0000       0.243027         6.6131

MULLIKEN ATOMIC CHARGES AND SPIN POPULATIONS
--------------------------------------------
   0 C :    0.000000    2.000000
Sum of atomic charges         :    0.0000000

FINAL SINGLE POINT ENERGY       -37.838147682565

DIPOLE MOMENT
-------------
                                X             Y             Z
Electronic contribution:      0.00000      -0.00000      -0.00000
Nuclear contribution   :      0.00000       0.00000       0.00000
                        -----------------------------------------
Total Dipole Moment    :      0.00000      -0.00000      -0.00000
                        -----------------------------------------
Magnitude (a.u.)       :      0.00000
Magnitude (Debye)      :      0.00000

Rotational constants in cm-1:     0.000000     0.000000     0.000000
Rotational constants in MHz :     0.000000     0.000000     0.000000

                             ****ORCA TERMINATED NORMALLY****
TOTAL RUN TIME: 0 days 0 hours 0 minutes 7 seconds 72 msec
