                         Program Version 4.2.1 -  RELEASE  -
|  1> ! UKS B3LYP def2-TZVP Grid4 TightSCF NOFINALGRID KeepDens
|  2> %output PrintLevel Mini Print[ P_Mulliken ] 1 Print[P_AtCharges_M] 1 end
|  3> %pal nprocs 4 end
|  4> %coords
|  5>     CTyp xyz
|  6>     Charge 0
|  7>     Mult 3
|  8>     Units Angs
|  9>     coords
| 10>         O 0.0 0.0 0.0
| 11>     end
| 12> end
| 13>
| 14>                          ****END OF INPUT****

CARTESIAN COORDINATES (ANGSTROEM)
---------------------------------
  O      0.000000    0.000000    0.000000

ORBITAL ENERGIES
----------------
                 SPIN UP ORBITALS
  NO   OCC          E(Eh)            E(eV)
   0   1.0000     -19.272205      -524.4234
   1   1.0000      -1.017151       -27.6781
   2   1.0000      -0.459206       -12.4956
   3   1.0000      -0.459206       -12.4956
   4   1.0000      -0.383906       -10.4466
   5   0.0000       0.317663         8.6440
   6   0.0000       0.380229        10.3465
   7   0.0000       0.380229        10.3465
   8   0.0000       0.405858        11.0440
   9   0.0000       1.364370        37.1264

                 SPIN DOWN ORBITALS
  NO   OCC          E(Eh)            E(eV)
   0   1.0000     -19.220571      -523.0183
   1   1.0000      -0.857904       -23.3448
   2   1.0000      -0.333013        -9.0617
   3   0.0000      -0.180123        -4.9014
   4   0.0000      -0.180123        -4.9014
   5   0.0000       0.350953         9.5499
   6   0.0000       0.419661        11.4196
   7   0.0000       0.443198        12.0600

MULLIKEN ATOMIC CHARGES AND SPIN POPULATIONS
--------------------------------------------
   0 O :   -0.000000    2.000000
Sum of atomic charges         :   -0.0000000

FINAL SINGLE POINT ENERGY       -75.066883965461

DIPOLE MOMENT
-------------
                                X             Y             Z
Electronic contribution:      0.00000      -0.00000       0.00000
Nuclear contribution   :      0.00000       0.00000       0.00000
                        -----------------------------------------
Total Dipole Moment    :      0.00000      -0.00000       0.00000
                        -----------------------------------------
Magnitude (a.u.)       :      0.00000
Magnitude (Debye)      :      0.00000

Rotational constants in cm-1:     0.000000     0.000000     0.000000
Rotational constants in MHz :     0.000000     0.000000     0.000000

                             ****ORCA TERMINATED NORMALLY****
TOTAL RUN TIME: 0 days 0 hours 0 minutes 1 seconds 879 msec
