                         Program Version 4.2.1 -  RELEASE  -
|  1> ! UKS B3LYP def2-TZVP Grid4 TightSCF NOFINALGRID KeepDens
|  2> %output PrintLevel Mini Print[ P_Mulliken ] 1 Print[P_AtCharges_M] 1 end
|  3> %pal nprocs 4 end
|  4> %coords
|  5>     CTyp xyz
|  6>     Charge 0
|  7>     Mult 2
|  8>     Units Angs
|  9>     coords
| 10>         F 0.0 0.0 0.0
| 11>     end
| 12> end
| 13>
| 14>                          ****END OF INPUT****

CARTESIAN COORDINATES (ANGSTROEM)
---------------------------------
  F      0.000000    0.000000    0.000000

ORBITAL ENERGIES
----------------
                 SPIN UP ORBITALS
  NO   OCC          E(Eh)            E(eV)
   0   1.0000     -24.782485      -674.3657
   1   1.0000      -1.230822       -33.4924
   2   1.0000      -0.563425       -15.3316
   3   1.0000      -0.474828       -12.9207
   4   1.0000      -0.474828       -12.9207
   5   0.0000       0.441878        12.0241
   6   0.0000       0.472866        12.8673
   7   0.0000       0.502809        13.6821
   8   0.0000       0.502809        13.6821
   9   0.0000       1.857147        50.5355

                 SPIN DOWN ORBITALS
  NO   OCC          E(Eh)            E(eV)
   0   1.0000     -24.750766      -673.5026
   1   1.0000      -1.138994       -30.9936
   2   1.0000      -0.443539       -12.0693
   3   1.0000      -0.443538       -12.0693
   4   0.0000      -0.268924        -7.3178
   5   0.0000       0.461474        12.5573
   6   0.0000       0.510917        13.9027
   7   0.0000       0.510917        13.9027
   8   0.0000       0.532382        14.4868

MULLIKEN ATOMIC CHARGES AND SPIN POPULATIONS
--------------------------------------------
   0 F :   -0.000000    1.000000
Sum of atomic charges         :   -0.0000000

FINAL SINGLE POINT ENERGY       -99.736287381578

DIPOLE MOMENT
-------------
                                X             Y             Z
Electronic contribution:     -0.00000       0.00000      -0.00000
Nuclear contribution   :      0.00000       0.00000       0.00000
                        -----------------------------------------
Total Dipole Moment    :     -0.00000       0.00000      -0.00000
                        -----------------------------------------
Magnitude (a.u.)       :      0.00000
Magnitude (Debye)      :      0.00000

Rotational constants in cm-1:     0.000000     0.000000     0.000000
Rotational constants in MHz :     0.000000     0.000000     0.000000

                             ****ORCA TERMINATED NORMALLY****
TOTAL RUN TIME: 0 days 0 hours 0 minutes 1 seconds 797 msec
